 Gaussian 03, Revision E.01,
 Gaussian 03:  AM64L-G03RevE.01 11-Sep-2007

 --------------------------------------------------------------
 # b3lyp/aug-cc-pvtz opt=(maxcycle=1000) geom=connectivity freq
 --------------------------------------------------------------

 -------------------
 Title Card Required
 -------------------
 Symbolic Z-matrix:
 Charge = -1 Multiplicity = 1

 SCF Done:  E(RB+HF-LYP) =  -687.500095727     A.U. after   16 cycles
 SCF Done:  E(RB+HF-LYP) =  -687.573508450     A.U. after   14 cycles
 SCF Done:  E(RB+HF-LYP) =  -687.638115555     A.U. after   10 cycles
 SCF Done:  E(RB+HF-LYP) =  -687.667412660     A.U. after   10 cycles
 SCF Done:  E(RB+HF-LYP) =  -687.703336035     A.U. after   10 cycles
 SCF Done:  E(RB+HF-LYP) =  -687.725071834     A.U. after   10 cycles
 SCF Done:  E(RB+HF-LYP) =  -687.733723372     A.U. after    9 cycles
 SCF Done:  E(RB+HF-LYP) =  -687.751837654     A.U. after    9 cycles
 SCF Done:  E(RB+HF-LYP) =  -687.762347954     A.U. after    9 cycles
 SCF Done:  E(RB+HF-LYP) =  -687.766540340     A.U. after    9 cycles
 SCF Done:  E(RB+HF-LYP) =  -687.775469452     A.U. after   12 cycles
 SCF Done:  E(RB+HF-LYP) =  -687.775470454     A.U. after   12 cycles
 SCF Done:  E(RB+HF-LYP) =  -687.775472411     A.U. after    7 cycles
 SCF Done:  E(RB+HF-LYP) =  -687.775472462     A.U. after    7 cycles
 SCF Done:  E(RB+HF-LYP) =  -687.775473213     A.U. after    7 cycles
 SCF Done:  E(RB+HF-LYP) =  -687.775473548     A.U. after    6 cycles
 SCF Done:  E(RB+HF-LYP) =  -687.775473831     A.U. after    6 cycles
 SCF Done:  E(RB+HF-LYP) =  -687.775474009     A.U. after    6 cycles
 SCF Done:  E(RB+HF-LYP) =  -687.775474136     A.U. after    6 cycles
 Optimization completed.
    -- Stationary point found.
 Normal termination of Gaussian 03 at Sat Jul 17 13:31:39 2010.

 ---------------------------------------------------------------------
 #N Geom=AllCheck Guess=Read SCRF=Check GenChk RB3LYP/Aug-CC-pVTZ Freq
 ---------------------------------------------------------------------

 Title Card Required
 -------------------
 Redundant internal coordinates taken from checkpoint file:
 oh-h2o-4-h2o-4-b3lyp.chk
 Charge = -1 Multiplicity = 1

                         Standard orientation:
 ---------------------------------------------------------------------
 Center     Atomic     Atomic              Coordinates (Angstroms)
 Number     Number      Type              X           Y           Z
 ---------------------------------------------------------------------
    1          1             0       -0.000690    0.000486    2.344768
    2          8             0       -0.000536    0.000478    1.383497
    3          1             0       -2.287586   -1.543349    0.011614
    4          1             0       -1.001978   -1.273029    0.854322
    5          8             0       -1.559791   -2.003364    0.462504
    6          1             0        1.001388    1.272424    0.854249
    7          1             0        2.286368    1.543730    0.010080
    8          8             0        1.559423    2.002948    0.462863
    9          1             0       -1.561114    2.259896   -0.003315
   10          1             0       -1.270894    1.004090    0.880044
   11          8             0       -2.010261    1.565909    0.508483
   12          1             0        1.269377   -1.003877    0.881734
   13          1             0        1.560044   -2.260176   -0.000824
   14          8             0        2.008911   -1.566032    0.510969
   15          1             0       -3.035273    0.499212   -0.303804
   16          1             0       -4.367727   -0.261251   -0.101589
   17          8             0       -3.602245   -0.227657   -0.680938
   18          1             0        4.370320    0.260917   -0.103064
   19          1             0        3.037749   -0.500392   -0.301458
   20          8             0        3.604170    0.225118   -0.681378
   21          1             0       -0.235716    2.949922   -1.866808
   22          1             0        0.482989    2.914970   -0.499118
   23          8             0       -0.248118    3.365262   -1.000324
   24          1             0        0.237746   -2.944023   -1.866557
   25          1             0       -0.482731   -2.913749   -0.499893
   26          8             0        0.248163   -3.363388   -1.001972
 ---------------------------------------------------------------------

 SCF Done:  E(RB+HF-LYP) =  -687.775474136     A.U. after    1 cycles

 The electronic state is 1-A.
 Alpha  occ. eigenvalues --  -19.00390 -19.00385 -19.00154 -19.00142 -18.98051
 Alpha  occ. eigenvalues --  -18.98037 -18.97981 -18.97972 -18.93737  -0.88836
 Alpha  occ. eigenvalues --   -0.88627  -0.88410  -0.88226  -0.85806  -0.85681
 Alpha  occ. eigenvalues --   -0.85606  -0.85561  -0.78286  -0.40833  -0.40649
 Alpha  occ. eigenvalues --   -0.40396  -0.40203  -0.38376  -0.38242  -0.38174
 Alpha  occ. eigenvalues --   -0.37232  -0.30065  -0.29020  -0.28280  -0.28101
 Alpha  occ. eigenvalues --   -0.27180  -0.25400  -0.24967  -0.24672  -0.23301
 Alpha  occ. eigenvalues --   -0.19439  -0.19374  -0.19148  -0.19138  -0.17792
 Alpha  occ. eigenvalues --   -0.17671  -0.17434  -0.17403  -0.13913  -0.13887
 Alpha virt. eigenvalues --    0.07498   0.08202   0.09300   0.09538   0.10513
 Alpha virt. eigenvalues --    0.12193   0.12307   0.12930   0.12942   0.13533
 Alpha virt. eigenvalues --    0.14008   0.14138   0.14801   0.15029   0.15295

 Mulliken atomic charges:
              1
     1  H    0.055111
     2  O   -0.812783
     3  H    0.242340
     4  H    0.345075
     5  O   -0.573700
     6  H    0.345059
     7  H    0.242095
     8  O   -0.573085
     9  H    0.243698
    10  H    0.323329
    11  O   -0.556400
    12  H    0.323314
    13  H    0.244211
    14  O   -0.558122
    15  H    0.316715
    16  H    0.103058
    17  O   -0.494743
    18  H    0.103195
    19  H    0.317260
    20  O   -0.494897
    21  H    0.134993
    22  H    0.293257
    23  O   -0.498651
    24  H    0.135094
    25  H    0.293385
    26  O   -0.498808
 Sum of Mulliken charges=  -1.00000

 Dipole moment (field-independent basis, Debye):
    X=     0.0027    Y=     0.0147    Z=    -0.6744  Tot=     0.6746
 Quadrupole moment (field-independent basis, Debye-Ang):
   XX=   -80.6874   YY=  -104.5884   ZZ=   -63.8816
   XY=     1.5007   XZ=    -0.0136   YZ=    -0.0414

  Exact polarizability: 108.465   0.359 102.696   0.005  -0.006  87.913
 Approx polarizability: 123.891   0.336 119.299  -0.006  -0.009 116.715

                     1                      2                      3
                     A                      A                      A
 Frequencies --    23.1750                34.8104                42.9143
 Red. masses --     5.9944                 6.1471                 5.5047
 Frc consts  --     0.0019                 0.0044                 0.0060
 IR Inten    --     1.4225                 0.0422                 0.0702

                     4                      5                      6
                     A                      A                      A
 Frequencies --    46.5066                48.1367                79.9492
 Red. masses --     5.5407                 5.9222                 7.4967
 Frc consts  --     0.0071                 0.0081                 0.0282
 IR Inten    --     2.7913                 7.5572                 0.0113

                     7                      8                      9
                     A                      A                      A
 Frequencies --    87.5406                93.0389               121.2068
 Red. masses --     6.8445                 8.1704                 6.7628
 Frc consts  --     0.0309                 0.0417                 0.0585
 IR Inten    --     2.7116                 2.5642                 1.9881

                    10                     11                     12
                     A                      A                      A
 Frequencies --   145.7597               148.6457               151.1686
 Red. masses --     6.2011                 6.4584                 6.9155
 Frc consts  --     0.0776                 0.0841                 0.0931
 IR Inten    --     2.0812                 0.5451                32.1146

                    13                     14                     15
                     A                      A                      A
 Frequencies --   151.8412               156.2265               226.9647
 Red. masses --     6.2748                 5.3860                 1.5071
 Frc consts  --     0.0852                 0.0775                 0.0457
 IR Inten    --     8.9197                 0.9191                41.7663

                    16                     17                     18
                     A                      A                      A
 Frequencies --   237.9591               240.5264               249.0362
 Red. masses --     1.4577                 3.1834                 2.9108
 Frc consts  --     0.0486                 0.1085                 0.1064
 IR Inten    --    10.8226                 1.8576                58.0434

                    19                     20                     21
                     A                      A                      A
 Frequencies --   255.5501               261.6267               264.3470
 Red. masses --     2.4408                 1.1502                 1.3395
 Frc consts  --     0.0939                 0.0464                 0.0551
 IR Inten    --   162.4135                34.1647               174.4291

                    22                     23                     24
                     A                      A                      A
 Frequencies --   294.3499               308.9085               321.0772
 Red. masses --     6.6650                 5.1772                 5.8082
 Frc consts  --     0.3402                 0.2911                 0.3528
 IR Inten    --     6.7041                33.0398                47.2674

                    25                     26                     27
                     A                      A                      A
 Frequencies --   332.5829               443.6698               446.3366
 Red. masses --     5.4421                 1.0428                 1.0463
 Frc consts  --     0.3547                 0.1209                 0.1228
 IR Inten    --    39.5535                48.5308                 0.7104

                    28                     29                     30
                     A                      A                      A
 Frequencies --   464.1746               469.6807               481.7652
 Red. masses --     1.0517                 1.0541                 1.0963
 Frc consts  --     0.1335                 0.1370                 0.1499
 IR Inten    --   136.6114                36.1189                45.0162

                    31                     32                     33
                     A                      A                      A
 Frequencies --   489.0883               642.5043               671.2684
 Red. masses --     1.1108                 1.0249                 1.0475
 Frc consts  --     0.1565                 0.2493                 0.2781
 IR Inten    --   133.6124                 0.1400                31.0679

                    34                     35                     36
                     A                      A                      A
 Frequencies --   675.6078               687.9098               702.6982
 Red. masses --     1.0338                 1.0516                 1.0474
 Frc consts  --     0.2780                 0.2932                 0.3047
 IR Inten    --     0.0563                43.1908                49.1038

                    37                     38                     39
                     A                      A                      A
 Frequencies --   706.0242               723.3349               737.2188
 Red. masses --     1.0416                 1.0380                 1.0391
 Frc consts  --     0.3059                 0.3200                 0.3327
 IR Inten    --    69.3655                38.1840                 0.1220

                    40                     41                     42
                     A                      A                      A
 Frequencies --   871.3190               911.3374               944.9493
 Red. masses --     1.0386                 1.0453                 1.0479
 Frc consts  --     0.4646                 0.5115                 0.5513
 IR Inten    --     8.5990                91.5855                51.5843

                    43                     44                     45
                     A                      A                      A
 Frequencies --   947.8701              1013.9359              1052.4527
 Red. masses --     1.0638                 1.0417                 1.0436
 Frc consts  --     0.5631                 0.6310                 0.6811
 IR Inten    --   301.2786                14.3818               187.9329

                    46                     47                     48
                     A                      A                      A
 Frequencies --  1058.5864              1059.5622              1673.0344
 Red. masses --     1.0435                 1.0441                 1.0752
 Frc consts  --     0.6889                 0.6907                 1.7732
 IR Inten    --   115.9023                77.1911               107.6713

                    49                     50                     51
                     A                      A                      A
 Frequencies --  1674.8998              1678.2583              1681.9218
 Red. masses --     1.0751                 1.0738                 1.0727
 Frc consts  --     1.7770                 1.7819                 1.7879
 IR Inten    --    54.0890                 0.8816                88.5689

                    52                     53                     54
                     A                      A                      A
 Frequencies --  1693.5300              1716.5398              1721.2834
 Red. masses --     1.0674                 1.0661                 1.0638
 Frc consts  --     1.8037                 1.8508                 1.8571
 IR Inten    --     3.7783                74.1308                75.4028

                    55                     56                     57
                     A                      A                      A
 Frequencies --  1754.1112              3021.3357              3030.8764
 Red. masses --     1.0612                 1.0729                 1.0737
 Frc consts  --     1.9239                 5.7706                 5.8115
 IR Inten    --     0.2636              1978.1614                 2.3180

                    58                     59                     60
                     A                      A                      A
 Frequencies --  3048.5567              3180.5241              3217.1453
 Red. masses --     1.0723                 1.0653                 1.0663
 Frc consts  --     5.8718                 6.3493                 6.5022
 IR Inten    --  1459.3611               796.1409              2372.1535

                    61                     62                     63
                     A                      A                      A
 Frequencies --  3242.9776              3247.6888              3260.1368
 Red. masses --     1.0643                 1.0658                 1.0653
 Frc consts  --     6.5949                 6.6231                 6.6708
 IR Inten    --   309.5433              2019.7043                59.4172

                    64                     65                     66
                     A                      A                      A
 Frequencies --  3634.5856              3636.1663              3641.2286
 Red. masses --     1.0653                 1.0660                 1.0657
 Frc consts  --     8.2915                 8.3042                 8.3247
 IR Inten    --   533.1068               226.5813               598.4021

                    67                     68                     69
                     A                      A                      A
 Frequencies --  3644.1577              3830.3485              3854.9395
 Red. masses --     1.0664                 1.0661                 1.0654
 Frc consts  --     8.3436                 9.2159                 9.3284
 IR Inten    --   313.5530                 2.4124                12.6945

                    70                     71                     72
                     A                      A                      A
 Frequencies --  3855.2245              3858.7550              3858.9545
 Red. masses --     1.0655                 1.0654                 1.0654
 Frc consts  --     9.3301                 9.3463                 9.3474
 IR Inten    --    50.4032                39.0654                21.1611

 - Thermochemistry -
 -------------------
 Temperature   298.150 Kelvin.  Pressure   1.00000 Atm.
 Atom  1 has atomic number  1 and mass   1.00783

 Molecular mass:   161.08726 amu.
 Principal axes and moments of inertia in atomic units:
                           1         2         3
     EIGENVALUES --  2625.365592898.493914745.44571
           X            0.99996   0.00870  -0.00001
           Y           -0.00870   0.99996  -0.00004
           Z            0.00001   0.00004   1.00000
 This molecule is an asymmetric top.
 Rotational symmetry number  1.
 Warning -- assumption of classical behavior for rotation
           may cause significant error
 Rotational temperatures (Kelvin)      0.03299     0.02988     0.01825
 Rotational constants (GHZ):           0.68742     0.62265     0.38031
 Zero-point vibrational energy     557354.1 (Joules/Mol)
                                  133.21082 (Kcal/Mol)
 Warning -- explicit consideration of  31 degrees of freedom as
           vibrations may cause significant error
 Vibrational temperatures:     33.34    50.08    61.74    66.91    69.26
          (Kelvin)            115.03   125.95   133.86   174.39   209.72
                              213.87   217.50   218.47   224.77   326.55
                              342.37   346.06   358.31   367.68   376.42
                              380.34   423.50   444.45   461.96   478.51
                              638.34   642.18   667.84   675.76   693.15
                              703.69   924.42   965.80   972.05   989.75
                             1011.02  1015.81  1040.72  1060.69  1253.63
                             1311.21  1359.57  1363.77  1458.83  1514.24
                             1523.07  1524.47  2407.12  2409.80  2414.64
                             2419.91  2436.61  2469.71  2476.54  2523.77
                             4347.02  4360.75  4386.19  4576.06  4628.75
                             4665.92  4672.69  4690.60  5229.35  5231.63
                             5238.91  5243.12  5511.01  5546.39  5546.80
                             5551.88  5552.17

 Zero-point correction=                           0.212285 (Hartree/Particle)
 Thermal correction to Energy=                    0.233408
 Thermal correction to Enthalpy=                  0.234353
 Thermal correction to Gibbs Free Energy=         0.161631
 Sum of electronic and zero-point Energies=           -687.563189
 Sum of electronic and thermal Energies=              -687.542066
 Sum of electronic and thermal Enthalpies=            -687.541121
 Sum of electronic and thermal Free Energies=         -687.613843

                     E (Thermal)             CV                S
                      KCal/Mol        Cal/Mol-Kelvin    Cal/Mol-Kelvin
 Total                  146.466             70.346            153.056
 Electronic               0.000              0.000              0.000
 Translational            0.889              2.981             41.139
 Rotational               0.889              2.981             31.957
 Vibrational            144.689             64.385             79.959
 Vibration  1             0.593              1.985              6.342
 Vibration  2             0.594              1.983              5.534
 Vibration  3             0.595              1.980              5.120
 Vibration  4             0.595              1.979              4.961
 Vibration  5             0.595              1.978              4.893
 Vibration  6             0.600              1.963              3.892
 Vibration  7             0.601              1.958              3.714
 Vibration  8             0.602              1.954              3.595
 Vibration  9             0.609              1.932              3.081
 Vibration 10             0.617              1.907              2.727
 Vibration 11             0.618              1.904              2.689
 Vibration 12             0.619              1.901              2.657
 Vibration 13             0.619              1.901              2.649
 Vibration 14             0.620              1.896              2.595
 Vibration 15             0.651              1.800              1.903
 Vibration 16             0.656              1.783              1.818
 Vibration 17             0.658              1.778              1.799
 Vibration 18             0.662              1.764              1.737
 Vibration 19             0.666              1.753              1.692
 Vibration 20             0.669              1.743              1.651
 Vibration 21             0.671              1.738              1.633
 Vibration 22             0.689              1.684              1.449
 Vibration 23             0.698              1.657              1.368
 Vibration 24             0.707              1.633              1.305
 Vibration 25             0.715              1.610              1.248
 Vibration 26             0.803              1.375              0.815
 Vibration 27             0.806              1.369              0.807
 Vibration 28             0.822              1.330              0.754
 Vibration 29             0.827              1.317              0.738
 Vibration 30             0.838              1.290              0.705
 Vibration 31             0.845              1.274              0.686

 Normal termination of Gaussian 03 at Sun Jul 18 00:33:32 2010.
